TITLE = "INSE_FVM_AC"
Variables = x, y, uX, uY, U, p
ZONE I = 101 J = 101
0 0 1.14186e-005 1.72573e-005 2.0693e-005 0.111215
0.01 0 0 0 0 0.14835
0.02 0 -8.47033e-022 6.77626e-021 6.829e-021 0.148448
0.03 0 0 -6.77626e-021 6.77626e-021 0.148474
0.04 0 0 -6.77626e-021 6.77626e-021 0.148418
0.05 0 -1.35525e-020 0 1.35525e-020 0.148281
0.06 0 -2.71051e-020 -6.77626e-021 2.79393e-020 0.148066
0.07 0 0 0 0 0.147786
0.08 0 0 0 0 0.147452
0.09 0 0 0 0 0.147071
0.1 0 -1.35525e-020 0 1.35525e-020 0.146652
0.11 0 -1.35525e-020 3.38813e-021 1.39696e-020 0.1462
0.12 0 -6.77626e-021 -3.38813e-021 7.57609e-021 0.145719
0.13 0 0 1.69407e-021 1.69407e-021 0.145212
0.14 0 0 0 0 0.14468
0.15 0 1.35525e-020 -8.47033e-022 1.3579e-020 0.144126
0.16 0 0 0 0 0.143551
0.17 0 0 2.11758e-022 2.11758e-022 0.142956
0.18 0 0 0 0 0.142343
0.19 0 -5.42101e-020 -8.47033e-022 5.42167e-020 0.141713
0.2 0 0 -1.69407e-021 1.69407e-021 0.141068
0.21 0 1.0842e-019 1.69407e-021 1.08433e-019 0.140409
0.22 0 -1.0842e-019 3.38813e-021 1.08473e-019 0.139739
0.23 0 0 0 0 0.139061
0.24 0 2.1684e-019 0 2.1684e-019 0.138377
0.25 0 -2.1684e-019 -3.38813e-021 2.16867e-019 0.137692
0.26 0 0 0 0 0.13701
0.27 0 2.1684e-019 6.77626e-021 2.16946e-019 0.136336
0.28 0 0 6.77626e-021 6.77626e-021 0.135676
0.29 0 0 6.77626e-021 6.77626e-021 0.135034
0.3 0 -4.33681e-019 -6.77626e-021 4.33734e-019 0.134418
0.31 0 0 -6.77626e-021 6.77626e-021 0.133834
0.32 0 0 -6.77626e-021 6.77626e-021 0.133288
0.33 0 0 0 0 0.132787
0.34 0 -4.33681e-019 0 4.33681e-019 0.132339
0.35 0 -4.33681e-019 -6.77626e-021 4.33734e-019 0.131951
0.36 0 -4.33681e-019 -6.77626e-021 4.33734e-019 0.131629
0.37 0 4.33681e-019 0 4.33681e-019 0.131383
0.38 0 0 6.77626e-021 6.77626e-021 0.131224
0.39 0 0 0 0 0.131155
0.4 0 0 0 0 0.131169
0.41 0 -8.67362e-019 0 8.67362e-019 0.13127
0.42 0 0 -6.77626e-021 6.77626e-021 0.131472
0.43 0 -8.67362e-019 -6.77626e-021 8.67388e-019 0.131777
0.44 0 0 0 0 0.132185
0.45 0 0 -6.77626e-021 6.77626e-021 0.132693
0.46 0 8.67362e-019 3.38813e-021 8.67368e-019 0.133299
0.47 0 0 0 0 0.133997
0.48 0 0 0 0 0.134783
0.49 0 0 8.47033e-022 8.47033e-022 0.135646
0.5 0 8.67362e-019 0 8.67362e-019 0.136578
0.51 0 0 0 0 0.137572
0.52 0 0 0 0 0.138618
0.53 0 0 0 0 0.139697
0.54 0 -8.67362e-019 0 8.67362e-019 0.140794
0.55 0 0 0 0 0.14189
0.56 0 -8.67362e-019 0 8.67362e-019 0.142966
0.57 0 -8.67362e-019 0 8.67362e-019 0.144003
0.58 0 0 1.35525e-020 1.35525e-020 0.144982
0.59 0 8.67362e-019 -1.35525e-020 8.67468e-019 0.145886
0.6 0 4.33681e-019 0 4.33681e-019 0.146696
0.61 0 0 -1.35525e-020 1.35525e-020 0.147398
0.62 0 -4.33681e-019 0 4.33681e-019 0.147976
0.63 0 -4.33681e-019 2.71051e-020 4.34527e-019 0.148413
0.64 0 0 -2.71051e-020 2.71051e-020 0.14869
0.65 0 0 0 0 0.148809
0.66 0 -4.33681e-019 2.71051e-020 4.34527e-019 0.148787
0.67 0 0 0 0 0.148614
0.68 0 -2.1684e-019 -2.71051e-020 2.18528e-019 0.148273
0.69 0 0 0 0 0.147765
0.7 0 0 -1.35525e-020 1.35525e-020 0.147104
0.71 0 -1.0842e-019 -1.35525e-020 1.09264e-019 0.146299
0.72 0 0 1.35525e-020 1.35525e-020 0.145362
0.73 0 3.38813e-021 -1.35525e-020 1.39696e-020 0.144307
0.74 0 0 0 0 0.143149
0.75 0 0 -1.35525e-020 1.35525e-020 0.141905
0.76 0 -1.0842e-019 -1.35525e-020 1.09264e-019 0.140593
0.77 0 -1.0842e-019 -6.77626e-021 1.08632e-019 0.139231
0.78 0 0 6.77626e-021 6.77626e-021 0.137836
0.79 0 0 6.77626e-021 6.77626e-021 0.136425
0.8 0 -2.1684e-019 -6.77626e-021 2.16946e-019 0.135021
0.81 0 0 0 0 0.133639
0.82 0 0 0 0 0.132295
0.83 0 0 2.11758e-022 2.11758e-022 0.131002
0.84 0 0 0 0 0.129773
0.85 0 2.1684e-019 0 2.1684e-019 0.128621
0.86 0 2.1684e-019 3.38813e-021 2.16867e-019 0.127553
0.87 0 -2.1684e-019 -3.38813e-021 2.16867e-019 0.126571
0.88 0 1.0842e-019 0 1.0842e-019 0.125686
0.89 0 0 6.77626e-021 6.77626e-021 0.124901
0.9 0 1.0842e-019 0 1.0842e-019 0.124222
0.91 0 1.0842e-019 -6.77626e-021 1.08632e-019 0.123652
0.92 0 -1.0842e-019 0 1.0842e-019 0.123194
0.93 0 0 0 0 0.12285
0.94 0 0 6.77626e-021 6.77626e-021 0.122622
0.95 0 -2.71051e-020 0 2.71051e-020 0.122508
0.96 0 0 6.77626e-021 6.77626e-021 0.122489
0.97 0 0 3.38813e-021 3.38813e-021 0.122546
0.98 0 2.5411e-021 0 2.5411e-021 0.122669
0.99 0 0 0 0 0.122802
1 0 4.31197e-006 5.18731e-006 6.74546e-006 0.0921442
0 0.01 0 0 0 0.148306
0.01 0.01 -5.49463e-005 -0.000229166 0.000235662 0.148362
0.02 0.01 4.27475e-006 -0.000356302 0.000356328 0.148447
0.03 0.01 0.00016049 -0.000408615 0.000439002 0.148463
0.04 0.01 0.000347449 -0.000412014 0.000538959 0.148403
0.05 0.01 0.00052231 -0.000386122 0.000649537 0.148268
0.06 0.01 0.000654934 -0.000345569 0.000740511 0.14806
0.07 0.01 0.000726236 -0.00029858 0.000785218 0.14779
0.08 0.01 0.000727804 -0.000249522 0.000769389 0.147468
0.09 0.01 0.000656455 -0.000200198 0.000686304 0.147102
0.1 0.01 0.000511872 -0.000151466 0.000533812 0.146697
0.11 0.01 0.000295252 -0.000103816 0.000312972 0.146259
0.12 0.01 8.45449e-006 -5.74284e-005 5.80474e-005 0.145791
0.13 0.01 -0.000346526 -1.22256e-005 0.000346742 0.145297
0.14 0.01 -0.000767906 3.20296e-005 0.000768574 0.144779
0.15 0.01 -0.00125419 7.56408e-005 0.00125647 0.144238
0.16 0.01 -0.00180421 0.000118939 0.00180813 0.143677
0.17 0.01 -0.00241732 0.00016224 0.00242276 0.143095
0.18 0.01 -0.0030934 0.00020579 0.00310024 0.142496
0.19 0.01 -0.00383264 0.000249757 0.00384077 0.141879
0.2 0.01 -0.00463538 0.000294226 0.00464471 0.141247
0.21 0.01 -0.00550202 0.000339188 0.00551247 0.140601
0.22 0.01 -0.0064329 0.000384536 0.00644439 0.139944
0.23 0.01 -0.00742811 0.000430029 0.00744054 0.139279
0.24 0.01 -0.00848757 0.000475372 0.00850087 0.138609
0.25 0.01 -0.00961115 0.000520382 0.00962522 0.137936
0.26 0.01 -0.0107978 0.000564859 0.0108126 0.137267
0.27 0.01 -0.0120453 0.000608389 0.0120607 0.136605
0.28 0.01 -0.0133511 0.000650557 0.0133669 0.135956
0.29 0.01 -0.0147116 0.000691073 0.0147278 0.135324
0.3 0.01 -0.0161225 0.000729312 0.016139 0.134717
0.31 0.01 -0.0175784 0.000764381 0.0175951 0.13414
0.32 0.01 -0.0190732 0.000795502 0.0190898 0.1336
0.33 0.01 -0.0205995 0.00082194 0.0206158 0.133104
0.34 0.01 -0.0221488 0.000842979 0.0221649 0.132658
0.35 0.01 -0.0237121 0.000857997 0.0237276 0.13227
0.36 0.01 -0.0252797 0.000866746 0.0252945 0.131946
0.37 0.01 -0.0268409 0.000869419 0.026855 0.131695
0.38 0.01 -0.02838 0.000865226 0.0283931 0.131527
0.39 0.01 -0.0298762 0.000849622 0.0298883 0.131448
0.4 0.01 -0.0313165 0.000819709 0.0313272 0.13145
0.41 0.01 -0.032697 0.000779097 0.0327063 0.131537
0.42 0.01 -0.0340069 0.000730269 0.0340148 0.13172
0.43 0.01 -0.035226 0.000672355 0.0352324 0.132004
0.44 0.01 -0.0363364 0.000604842 0.0363415 0.132388
0.45 0.01 -0.0373242 0.000527325 0.037328 0.132868
0.46 0.01 -0.0381757 0.000439279 0.0381782 0.133443
0.47 0.01 -0.0388775 0.00034027 0.038879 0.134108
0.48 0.01 -0.0394179 0.00023063 0.0394186 0.134857
0.49 0.01 -0.0397858 0.000110936 0.0397859 0.135683
0.5 0.01 -0.0399708 -1.63466e-005 0.0399708 0.13658
0.51 0.01 -0.0399635 -0.000146452 0.0399638 0.137537
0.52 0.01 -0.0397562 -0.000277268 0.0397571 0.138543
0.53 0.01 -0.0393439 -0.000409039 0.039346 0.139582
0.54 0.01 -0.0387231 -0.000541603 0.0387269 0.140639
0.55 0.01 -0.0378928 -0.000674283 0.0378988 0.141695
0.56 0.01 -0.0368569 -0.000805965 0.0368658 0.142731
0.57 0.01 -0.0356224 -0.000935345 0.0356347 0.14373
0.58 0.01 -0.0341972 -0.00106058 0.0342136 0.144673
0.59 0.01 -0.0325918 -0.00117913 0.0326131 0.145543
0.6 0.01 -0.0308192 -0.00128864 0.0308461 0.146324
0.61 0.01 -0.0288945 -0.00138728 0.0289278 0.146998
0.62 0.01 -0.0268343 -0.00147381 0.0268747 0.147553
0.63 0.01 -0.0246585 -0.00154695 0.024707 0.147971
0.64 0.01 -0.0223994 -0.00160445 0.0224568 0.148235
0.65 0.01 -0.0200919 -0.00164347 0.020159 0.148345
0.66 0.01 -0.0177492 -0.00166147 0.0178268 0.148318
0.67 0.01 -0.0153762 -0.00165806 0.0154654 0.148143
0.68 0.01 -0.0129998 -0.00163643 0.0131024 0.147804
0.69 0.01 -0.0106564 -0.00159928 0.0107758 0.147305
0.7 0.01 -0.00837388 -0.00154684 0.00851555 0.146656
0.71 0.01 -0.00617434 -0.00147924 0.00634907 0.145869
0.72 0.01 -0.00407883 -0.00139741 0.00431156 0.144954
0.73 0.01 -0.00210711 -0.00130281 0.00247734 0.143924
0.74 0.01 -0.00027682 -0.00119723 0.00122881 0.142794
0.75 0.01 0.00139698 -0.00108265 0.0017674 0.141582
0.76 0.01 0.00290201 -0.000961277 0.00305708 0.140303
0.77 0.01 0.00422906 -0.000835736 0.00431084 0.138976
0.78 0.01 0.00537097 -0.000708758 0.00541753 0.137617
0.79 0.01 0.00632229 -0.000582064 0.00634902 0.136245
0.8 0.01 0.00708231 -0.000456554 0.00709701 0.134878
0.81 0.01 0.0076549 -0.000333348 0.00766215 0.133533
0.82 0.01 0.00804509 -0.000213891 0.00804793 0.132223
0.83 0.01 0.00825932 -9.91403e-005 0.00825992 0.130963
0.84 0.01 0.00830647 1.09782e-005 0.00830648 0.129765
0.85 0.01 0.00819801 0.00011615 0.00819883 0.128641
0.86 0.01 0.00794717 0.000213144 0.00795003 0.127599
0.87 0.01 0.00756765 0.000298935 0.00757355 0.126643
0.88 0.01 0.00707393 0.000373077 0.00708376 0.12578
0.89 0.01 0.00648153 0.000435154 0.00649612 0.125015
0.9 0.01 0.00580698 0.000484615 0.00582717 0.124351
0.91 0.01 0.00506862 0.000520865 0.00509531 0.123792
0.92 0.01 0.0042867 0.000542796 0.00432093 0.12334
0.93 0.01 0.0034838 0.000548792 0.00352676 0.122997
0.94 0.01 0.00268754 0.000536084 0.00274049 0.122763
0.95 0.01 0.00193412 0.000498703 0.00199738 0.122637
0.96 0.01 0.00126125 0.000429056 0.00133223 0.122603
0.97 0.01 0.000698569 0.000325427 0.00077065 0.12264
0.98 0.01 0.000285478 0.000192932 0.000344558 0.12274
0.99 0.01 6.52515e-005 5.48161e-005 8.52207e-005 0.122863
1 0.01 0 0 0 0.12292
0 0.02 0 0 0 0.148369
0.01 0.02 -5.05788e-005 -0.000483524 0.000486163 0.148414
0.02 0.02 3.48007e-005 -0.000757754 0.000758553 0.148476
0.03 0.02 0.000235419 -0.000871716 0.000902946 0.148475
0.04 0.02 0.000466637 -0.000873691 0.000990498 0.148408
0.05 0.02 0.000665679 -0.00080336 0.00104332 0.148274
0.06 0.02 0.000786378 -0.000691432 0.00104712 0.148077
0.07 0.02 0.000798873 -0.000557099 0.000973939 0.147826
0.08 0.02 0.000687805 -0.000412075 0.000801799 0.147527
0.09 0.02 0.000445721 -0.000263057 0.000517558 0.147187
0.1 0.02 6.96487e-005 -0.000113917 0.000133522 0.146808
0.11 0.02 -0.000440392 3.31879e-005 0.000441641 0.146398
0.12 0.02 -0.00108268 0.000177324 0.00109711 0.145957
0.13 0.02 -0.00185483 0.000318427 0.00188197 0.14549
0.14 0.02 -0.00275448 0.000456994 0.00279214 0.144998
0.15 0.02 -0.00377956 0.000593893 0.00382594 0.144484
0.16 0.02 -0.00492842 0.00072998 0.00498219 0.143949
0.17 0.02 -0.00620005 0.000865908 0.00626023 0.143393
0.18 0.02 -0.0075941 0.00100223 0.00765995 0.142819
0.19 0.02 -0.00911055 0.00113936 0.00918152 0.142228
0.2 0.02 -0.0107496 0.00127745 0.0108252 0.141622
0.21 0.02 -0.0125112 0.00141639 0.0125911 0.141002
0.22 0.02 -0.0143954 0.00155584 0.0144792 0.14037
0.23 0.02 -0.0164013 0.00169521 0.0164887 0.13973
0.24 0.02 -0.0185278 0.00183362 0.0186183 0.139084
0.25 0.02 -0.0207729 0.0019702 0.0208661 0.138435
0.26 0.02 -0.0231335 0.00210397 0.0232289 0.137788
0.27 0.02 -0.0256044 0.00223349 0.0257016 0.137147
0.28 0.02 -0.0281791 0.00235709 0.0282775 0.136517
0.29 0.02 -0.0308498 0.0024732 0.0309488 0.135903
0.3 0.02 -0.033607 0.00257988 0.0337059 0.135309
0.31 0.02 -0.0364394 0.0026749 0.0365375 0.134744
0.32 0.02 -0.0393338 0.00275609 0.0394302 0.134211
0.33 0.02 -0.042275 0.00282133 0.042369 0.133719
0.34 0.02 -0.0452461 0.00286854 0.0453369 0.133274
0.35 0.02 -0.0482283 0.00289577 0.0483152 0.132882
0.36 0.02 -0.0512016 0.00290159 0.0512838 0.132551
0.37 0.02 -0.0541445 0.00288511 0.0542213 0.132286
0.38 0.02 -0.0570306 0.00284426 0.0571015 0.132097
0.39 0.02 -0.0598272 0.00277243 0.0598914 0.131992
0.4 0.02 -0.062506 0.00266393 0.0625627 0.131968
0.41 0.02 -0.065052 0.00252234 0.0651009 0.132022
0.42 0.02 -0.0674464 0.00235277 0.0674874 0.132165
0.43 0.02 -0.0696568 0.00215446 0.0696901 0.132404
0.44 0.02 -0.0716523 0.00192529 0.0716782 0.132735
0.45 0.02 -0.073408 0.0016651 0.0734269 0.133158
0.46 0.02 -0.0749001 0.00137471 0.0749127 0.133671
0.47 0.02 -0.0761054 0.00105481 0.0761127 0.134271
0.48 0.02 -0.0770028 0.00070787 0.0770061 0.134954
0.49 0.02 -0.0775731 0.000338566 0.0775738 0.135715
0.5 0.02 -0.0777984 -4.74435e-005 0.0777984 0.136545
0.51 0.02 -0.0776651 -0.000444146 0.0776663 0.137432
0.52 0.02 -0.0771645 -0.00084775 0.0771692 0.138363
0.53 0.02 -0.0762907 -0.00125593 0.076301 0.139326
0.54 0.02 -0.075039 -0.00166617 0.0750575 0.140307
0.55 0.02 -0.0734099 -0.00207574 0.0734393 0.141289
0.56 0.02 -0.0714112 -0.00248013 0.0714543 0.142253
0.57 0.02 -0.0690558 -0.00287359 0.0691156 0.143184
0.58 0.02 -0.0663589 -0.00325033 0.0664385 0.144064
0.59 0.02 -0.0633401 -0.00360421 0.0634426 0.144876
0.6 0.02 -0.0600238 -0.00392948 0.0601523 0.145603
0.61 0.02 -0.0564382 -0.00422116 0.0565958 0.146231
0.62 0.02 -0.0526139 -0.004475 0.0528038 0.146746
0.63 0.02 -0.0485872 -0.00468676 0.0488128 0.147133
0.64 0.02 -0.0444098 -0.00485134 0.044674 0.147374
0.65 0.02 -0.0401359 -0.00496367 0.0404416 0.147468
0.66 0.02 -0.0357926 -0.00501998 0.0361429 0.147432
0.67 0.02 -0.0314 -0.0050198 0.0317987 0.147253
0.68 0.02 -0.0270054 -0.00496703 0.0274584 0.146918
0.69 0.02 -0.0226659 -0.00486538 0.0231822 0.146433
0.7 0.02 -0.0184277 -0.00471628 0.0190217 0.145808
0.71 0.02 -0.0143311 -0.00452152 0.0150275 0.145052
0.72 0.02 -0.0104143 -0.00428419 0.0112611 0.144174
0.73 0.02 -0.00671272 -0.00400849 0.00781848 0.143188
0.74 0.02 -0.00325834 -0.00369937 0.00492972 0.142108
0.75 0.02 -7.88075e-005 -0.00336237 0.0033633 0.14095
0.76 0.02 0.00280256 -0.00300347 0.00410794 0.13973
0.77 0.02 0.00536734 -0.00262912 0.00597667 0.138465
0.78 0.02 0.00760165 -0.00224595 0.0079265 0.137172
0.79 0.02 0.00949558 -0.00185982 0.009676 0.135868
0.8 0.02 0.0110461 -0.00147593 0.0111442 0.134569
0.81 0.02 0.0122569 -0.00109923 0.0123061 0.133292
0.82 0.02 0.0131354 -0.000734058 0.0131559 0.132048
0.83 0.02 0.0136923 -0.00038378 0.0136977 0.130852
0.84 0.02 0.0139424 -5.07881e-005 0.0139425 0.129713
0.85 0.02 0.013903 0.000262573 0.0139055 0.128642
0.86 0.02 0.0135948 0.000552032 0.013606 0.127647
0.87 0.02 0.0130429 0.000812965 0.0130682 0.126737
0.88 0.02 0.0122745 0.00104195 0.0123186 0.125916
0.89 0.02 0.011318 0.00123566 0.0113853 0.125186
0.9 0.02 0.0102048 0.00139133 0.0102992 0.124552
0.91 0.02 0.00896879 0.00150624 0.00909439 0.124016
0.92 0.02 0.00764747 0.00157648 0.00780827 0.123578
0.93 0.02 0.00628214 0.00159668 0.00648188 0.123238
0.94 0.02 0.00492031 0.00155935 0.0051615 0.122996
0.95 0.02 0.00361967 0.00145321 0.00390049 0.122851
0.96 0.02 0.00244235 0.00126552 0.00275075 0.122793
0.97 0.02 0.00144032 0.000992147 0.00174896 0.122802
0.98 0.02 0.000672429 0.000643689 0.000930858 0.122876
0.99 0.02 0.000208605 0.000265241 0.000337445 0.122998
1 0.02 0 0 0 0.123064
0 0.03 0 0 0 0.148485
0.01 0.03 -5.00831e-005 -0.000753176 0.00075484 0.148524
0.02 0.03 2.4222e-005 -0.00117721 0.00117746 0.14857
0.03 0.03 0.000195336 -0.00134502 0.00135913 0.148556
0.04 0.03 0.000373042 -0.00132663 0.00137808 0.148481
0.05 0.03 0.00048683 -0.00118184 0.00127818 0.148346
0.06 0.03 0.000484626 -0.000957694 0.00107333 0.148155
0.07 0.03 0.000332372 -0.00068608 0.000762349 0.147917
0.08 0.03 1.03145e-005 -0.000388384 0.000388521 0.147634
0.09 0.03 -0.000492598 -7.88195e-005 0.000498864 0.147313
0.1 0.03 -0.00118195 0.00023371 0.00120483 0.146956
0.11 0.03 -0.00205942 0.000544129 0.00213009 0.146568
0.12 0.03 -0.00312426 0.000850031 0.00323783 0.146151
0.13 0.03 -0.00437456 0.00115082 0.00452341 0.145708
0.14 0.03 -0.00580811 0.00144705 0.00598565 0.14524
0.15 0.03 -0.00742287 0.00174001 0.00762408 0.144749
0.16 0.03 -0.00921736 0.00203109 0.00943848 0.144237
0.17 0.03 -0.0111905 0.00232144 0.0114287 0.143704
0.18 0.03 -0.0133415 0.002612 0.0135948 0.143153
0.19 0.03 -0.0156701 0.00290338 0.0159368 0.142584
0.2 0.03 -0.0181756 0.00319574 0.0184544 0.141999
0.21 0.03 -0.0208573 0.00348874 0.0211471 0.1414
0.22 0.03 -0.0237138 0.00378152 0.0240134 0.140788
0.23 0.03 -0.0267428 0.00407275 0.0270512 0.140168
0.24 0.03 -0.029941 0.00436051 0.0302568 0.13954
0.25 0.03 -0.0333037 0.00464248 0.0336257 0.138908
0.26 0.03 -0.0368247 0.00491614 0.0371514 0.138276
0.27 0.03 -0.0404952 0.00517832 0.040825 0.137649
0.28 0.03 -0.044304 0.00542527 0.044635 0.137029
0.29 0.03 -0.0482379 0.00565311 0.0485681 0.136423
0.3 0.03 -0.0522816 0.00585778 0.0526087 0.135836
0.31 0.03 -0.056417 0.00603505 0.0567389 0.135273
0.32 0.03 -0.0606234 0.0061806 0.0609377 0.13474
0.33 0.03 -0.0648778 0.00629029 0.065182 0.134244
0.34 0.03 -0.0691545 0.00635988 0.0694463 0.133791
0.35 0.03 -0.0734254 0.00638523 0.0737025 0.133388
0.36 0.03 -0.0776605 0.00636273 0.0779207 0.13304
0.37 0.03 -0.0818283 0.00628936 0.0820696 0.132754
0.38 0.03 -0.085894 0.00616145 0.0861147 0.132538
0.39 0.03 -0.0898166 0.00597215 0.0900149 0.1324
0.4 0.03 -0.0935549 0.00571259 0.0937292 0.132343
0.41 0.03 -0.0970805 0.00538321 0.0972296 0.13236
0.42 0.03 -0.100367 0.00499239 0.100491 0.13246
0.43 0.03 -0.103377 0.00454161 0.103477 0.132649
0.44 0.03 -0.10607 0.00402805 0.106146 0.13293
0.45 0.03 -0.108411 0.00345305 0.108466 0.133302
0.46 0.03 -0.110368 0.00282079 0.110404 0.133762
0.47 0.03 -0.111913 0.00213598 0.111933 0.13431
0.48 0.03 -0.113017 0.00140419 0.113026 0.134941
0.49 0.03 -0.113658 0.000632924 0.11366 0.135648
0.5 0.03 -0.113816 -0.000169963 0.113816 0.13642
0.51 0.03 -0.113477 -0.000997707 0.113481 0.137248
0.52 0.03 -0.112632 -0.0018431 0.112647 0.138119
0.53 0.03 -0.111276 -0.00269806 0.111308 0.139022
0.54 0.03 -0.109405 -0.00355475 0.109463 0.139945
0.55 0.03 -0.107023 -0.00440547 0.107114 0.140872
0.56 0.03 -0.10414 -0.00524026 0.104272 0.141786
0.57 0.03 -0.100776 -0.00604739 0.100957 0.14267
0.58 0.03 -0.0969509 -0.00681556 0.0971902 0.143507
0.59 0.03 -0.0926942 -0.00753393 0.0929999 0.14428
0.6 0.03 -0.0880391 -0.00819219 0.0884194 0.144973
0.61 0.03 -0.0830237 -0.00878082 0.0834868 0.145571
0.62 0.03 -0.0776899 -0.00929116 0.0782435 0.146061
0.63 0.03 -0.0720857 -0.0097149 0.0727373 0.146428
0.64 0.03 -0.0662753 -0.0100437 0.067032 0.146655
0.65 0.03 -0.0603254 -0.01027 0.0611933 0.14674
0.66 0.03 -0.054275 -0.0103891 0.0552604 0.146698
0.67 0.03 -0.0481584 -0.010401 0.0492687 0.146518
0.68 0.03 -0.0420378 -0.0103088 0.0432834 0.146187
0.69 0.03 -0.035984 -0.0101158 0.0373789 0.145713
0.7 0.03 -0.0300565 -0.0098252 0.0316216 0.145104
0.71 0.03 -0.0243092 -0.00944148 0.0260783 0.144368
0.72 0.03 -0.0187936 -0.00897104 0.0208249 0.143516
0.73 0.03 -0.0135578 -0.00842193 0.0159607 0.14256
0.74 0.03 -0.00864546 -0.00780365 0.0116465 0.141514
0.75 0.03 -0.00409492 -0.00712687 0.00821953 0.140394
0.76 0.03 6.09223e-005 -0.00640314 0.00640343 0.139215
0.77 0.03 0.00379522 -0.0056443 0.0068016 0.137994
0.78 0.03 0.00708696 -0.00486228 0.00859458 0.136747
0.79 0.03 0.00992061 -0.00406913 0.0107227 0.135491
0.8 0.03 0.0122894 -0.00327654 0.0127187 0.134242
0.81 0.03 0.0141956 -0.00249538 0.0144133 0.133016
0.82 0.03 0.0156469 -0.00173529 0.0157428 0.131824
0.83 0.03 0.0166555 -0.00100484 0.0166858 0.130679
0.84 0.03 0.0172392 -0.000311903 0.017242 0.12959
0.85 0.03 0.0174194 0.000336558 0.0174226 0.128565
0.86 0.03 0.0172222 0.000934675 0.0172475 0.127611
0.87 0.03 0.0166791 0.00147636 0.0167443 0.126738
0.88 0.03 0.0158256 0.00195474 0.0159458 0.125948
0.89 0.03 0.0147009 0.00236323 0.0148896 0.125247
0.9 0.03 0.0133487 0.00269535 0.0136181 0.124638
0.91 0.03 0.011816 0.00294374 0.0121771 0.12412
0.92 0.03 0.0101536 0.00309961 0.0106162 0.123694
0.93 0.03 0.00841728 0.00315213 0.00898813 0.12336
0.94 0.03 0.00666891 0.00308793 0.00734913 0.123116
0.95 0.03 0.00498048 0.00289086 0.00575867 0.122963
0.96 0.03 0.00343016 0.00254509 0.00427124 0.122895
0.97 0.03 0.0020862 0.00204429 0.00292084 0.122895
0.98 0.03 0.00102388 0.00140107 0.00173532 0.122969
0.99 0.03 0.000343473 0.000670151 0.000753044 0.123116
1 0.03 0 0 0 0.123203
0 0.04 0 0 0 0.148668
0.01 0.04 -6.98797e-005 -0.0010077 0.00101012 0.148698
0.02 0.04 -4.40902e-005 -0.00155498 0.00155561 0.148729
0.03 0.04 3.91097e-005 -0.00174507 0.00174551 0.148701
0.04 0.04 8.83415e-005 -0.001672 0.00167433 0.148616
0.05 0.04 3.20358e-005 -0.00141536 0.00141573 0.148476
0.06 0.04 -0.000181517 -0.00103752 0.00105328 0.148288
0.07 0.04 -0.000586342 -0.000583458 0.000827176 0.148056
0.08 0.04 -0.00120419 -8.50867e-005 0.00120719 0.147784
0.09 0.04 -0.00204832 0.000435405 0.00209408 0.147476
0.1 0.04 -0.00312594 0.000963601 0.00327109 0.147134
0.11 0.04 -0.00444006 0.00149097 0.00468371 0.146763
0.12 0.04 -0.00599102 0.00201318 0.00632022 0.146365
0.13 0.04 -0.00777776 0.00252871 0.0081785 0.14594
0.14 0.04 -0.00979864 0.0030379 0.0102588 0.145492
0.15 0.04 -0.0120521 0.00354204 0.0125618 0.145021
0.16 0.04 -0.0145368 0.00404286 0.0150885 0.144528
0.17 0.04 -0.0172517 0.00454201 0.0178396 0.144015
0.18 0.04 -0.0201958 0.00504072 0.0208154 0.143482
0.19 0.04 -0.023368 0.00553967 0.0240156 0.142931
0.2 0.04 -0.0267666 0.00603883 0.0274394 0.142364
0.21 0.04 -0.0303897 0.00653733 0.0310849 0.141781
0.22 0.04 -0.034234 0.00703326 0.034949 0.141185
0.23 0.04 -0.0382949 0.00752386 0.039027 0.140578
0.24 0.04 -0.0425664 0.00800549 0.0433126 0.139962
0.25 0.04 -0.0470403 0.0084738 0.0477975 0.139341
0.26 0.04 -0.0517064 0.00892403 0.0524709 0.138717
0.27 0.04 -0.0565514 0.00935076 0.0573193 0.138094
0.28 0.04 -0.0615589 0.0097477 0.0623259 0.137478
0.29 0.04 -0.0667096 0.0101082 0.0674711 0.136872
0.3 0.04 -0.0719815 0.0104254 0.0727326 0.136282
0.31 0.04 -0.0773495 0.0106925 0.078085 0.135713
0.32 0.04 -0.0827852 0.010902 0.0834999 0.135171
0.33 0.04 -0.0882575 0.0110473 0.0889462 0.134662
0.34 0.04 -0.0937326 0.0111212 0.0943901 0.134192
0.35 0.04 -0.0991736 0.0111167 0.0997947 0.133767
0.36 0.04 -0.104541 0.0110271 0.105121 0.133394
0.37 0.04 -0.109795 0.0108463 0.110329 0.133078
0.38 0.04 -0.114893 0.0105699 0.115378 0.132825
0.39 0.04 -0.119789 0.0101917 0.120222 0.132644
0.4 0.04 -0.124432 0.00970209 0.124809 0.132546
0.41 0.04 -0.128777 0.00909851 0.129099 0.132527
0.42 0.04 -0.132793 0.0083899 0.133058 0.132585
0.43 0.04 -0.136441 0.00758282 0.136652 0.132728
0.44 0.04 -0.139674 0.00667854 0.139834 0.132965
0.45 0.04 -0.14245 0.00568007 0.142563 0.133294
0.46 0.04 -0.144731 0.00459347 0.144804 0.133711
0.47 0.04 -0.146488 0.00342698 0.146528 0.134213
0.48 0.04 -0.147689 0.00218919 0.147705 0.134797
0.49 0.04 -0.148312 0.000889108 0.148315 0.135455
0.5 0.04 -0.148337 -0.000462785 0.148338 0.136178
0.51 0.04 -0.14775 -0.00185507 0.147762 0.136959
0.52 0.04 -0.146543 -0.00327457 0.146579 0.137786
0.53 0.04 -0.14471 -0.00470666 0.144787 0.138647
0.54 0.04 -0.142253 -0.00613662 0.142386 0.139531
0.55 0.04 -0.139178 -0.00754969 0.139383 0.140422
0.56 0.04 -0.135499 -0.00892978 0.135793 0.141304
0.57 0.04 -0.131239 -0.0102595 0.131639 0.142158
0.58 0.04 -0.126427 -0.0115215 0.126951 0.142969
0.59 0.04 -0.121096 -0.0126992 0.12176 0.143719
0.6 0.04 -0.115288 -0.0137768 0.116109 0.144392
0.61 0.04 -0.109048 -0.0147394 0.11004 0.144973
0.62 0.04 -0.102426 -0.0155733 0.103603 0.145451
0.63 0.04 -0.0954768 -0.0162657 0.0968524 0.145809
0.64 0.04 -0.0882741 -0.0168046 0.0898594 0.14603
0.65 0.04 -0.0808923 -0.0171791 0.0826963 0.146113
0.66 0.04 -0.0733803 -0.0173833 0.0754111 0.146072
0.67 0.04 -0.065783 -0.0174178 0.0680498 0.145894
0.68 0.04 -0.0581732 -0.0172851 0.0606868 0.14557
0.69 0.04 -0.0506311 -0.0169877 0.053405 0.145106
0.7 0.04 -0.0432264 -0.0165305 0.0462794 0.144509
0.71 0.04 -0.0360235 -0.0159207 0.0393848 0.143788
0.72 0.04 -0.0290842 -0.0151684 0.032802 0.142953
0.73 0.04 -0.0224668 -0.0142861 0.0266243 0.142017
0.74 0.04 -0.0162249 -0.0132884 0.0209721 0.140994
0.75 0.04 -0.0104061 -0.0121918 0.0160289 0.139898
0.76 0.04 -0.00505171 -0.0110144 0.0121176 0.138747
0.77 0.04 -0.000196239 -0.00977489 0.00977686 0.137556
0.78 0.04 0.00413206 -0.00849212 0.00944405 0.136341
0.79 0.04 0.00791133 -0.00718522 0.0106872 0.135117
0.8 0.04 0.0111301 -0.0058728 0.0125845 0.133903
0.81 0.04 0.0137876 -0.0045726 0.014526 0.132713
0.82 0.04 0.0158891 -0.00330163 0.0162285 0.131559
0.83 0.04 0.0174461 -0.00207579 0.0175691 0.13045
0.84 0.04 0.0184767 -0.000909785 0.0184991 0.129398
0.85 0.04 0.0190055 0.000183146 0.0190064 0.128411
0.86 0.04 0.0190625 0.00119183 0.0190997 0.127494
0.87 0.04 0.0186832 0.00210608 0.0188015 0.126652
0.88 0.04 0.0179088 0.00291577 0.0181446 0.125891
0.89 0.04 0.0167861 0.00361115 0.0171701 0.125215
0.9 0.04 0.0153669 0.00418135 0.0159256 0.124625
0.91 0.04 0.0137078 0.00461368 0.0144634 0.124122
0.92 0.04 0.0118705 0.00489383 0.0128397 0.123707
0.93 0.04 0.00992147 0.00500518 0.0111125 0.123379
0.94 0.04 0.00793349 0.00492841 0.00933967 0.123137
0.95 0.04 0.00598934 0.00464223 0.00757776 0.122983
0.96 0.04 0.00417938 0.00412721 0.00587376 0.122913
0.97 0.04 0.00258471 0.0033733 0.0042497 0.122914
0.98 0.04 0.00129716 0.0023892 0.00271862 0.122996
0.99 0.04 0.000447884 0.00122394 0.00130331 0.12317
1 0.04 0 0 0 0.123278
0 0.05 0 0 0 0.14892
0.01 0.05 -0.000110171 -0.00121738 0.00122235 0.14894
0.02 0.05 -0.000166841 -0.00184006 0.00184761 0.148951
0.03 0.05 -0.00022154 -0.00200494 0.00201714 0.148905
0.04 0.05 -0.00036334 -0.00183187 0.00186756 0.148806
0.05 0.05 -0.000659809 -0.00141984 0.00156566 0.148659
0.06 0.05 -0.00115855 -0.000845452 0.00143424 0.148468
0.07 0.05 -0.00189133 -0.000166284 0.00189862 0.148238
0.08 0.05 -0.00287943 0.000575576 0.00293639 0.147972
0.09 0.05 -0.00413643 0.00135056 0.00435133 0.147673
0.1 0.05 -0.0056701 0.00213909 0.00606018 0.147344
0.11 0.05 -0.00748422 0.00292923 0.00803704 0.146987
0.12 0.05 -0.00958003 0.00371458 0.010275 0.146603
0.13 0.05 -0.0119573 0.00449258 0.0127735 0.146195
0.14 0.05 -0.0146153 0.00526309 0.0155341 0.145764
0.15 0.05 -0.0175529 0.00602732 0.0185589 0.14531
0.16 0.05 -0.0207689 0.00678705 0.0218498 0.144834
0.17 0.05 -0.0242623 0.00754409 0.0254081 0.144338
0.18 0.05 -0.0280315 0.0082997 0.0292344 0.143822
0.19 0.05 -0.0320746 0.00905428 0.033328 0.143286
0.2 0.05 -0.0363886 0.00980705 0.037687 0.142733
0.21 0.05 -0.04097 0.0105559 0.042308 0.142163
0.22 0.05 -0.0458132 0.0112973 0.0471855 0.141578
0.23 0.05 -0.0509109 0.0120265 0.0523121 0.140979
0.24 0.05 -0.0562534 0.0127376 0.0576775 0.14037
0.25 0.05 -0.0618284 0.0134237 0.0632688 0.139753
0.26 0.05 -0.0676207 0.0140772 0.0690705 0.13913
0.27 0.05 -0.0736119 0.0146898 0.0750633 0.138506
0.28 0.05 -0.0797799 0.0152525 0.0812248 0.137885
0.29 0.05 -0.086099 0.0157552 0.0875286 0.137272
0.3 0.05 -0.0925402 0.0161879 0.0939454 0.13667
0.31 0.05 -0.0990713 0.01654 0.100442 0.136086
0.32 0.05 -0.105656 0.0168004 0.106984 0.135524
0.33 0.05 -0.112256 0.0169582 0.11353 0.13499
0.34 0.05 -0.11883 0.0170033 0.12004 0.13449
0.35 0.05 -0.125332 0.0169263 0.12647 0.134031
0.36 0.05 -0.131717 0.016718 0.132773 0.13362
0.37 0.05 -0.137934 0.0163702 0.138902 0.133265
0.38 0.05 -0.143934 0.015878 0.144807 0.13297
0.39 0.05 -0.149666 0.0152372 0.15044 0.132744
0.4 0.05 -0.155076 0.0144423 0.155747 0.132601
0.41 0.05 -0.160106 0.0134882 0.160673 0.132542
0.42 0.05 -0.164717 0.0123796 0.165181 0.13256
0.43 0.05 -0.168869 0.0111281 0.169235 0.13266
0.44 0.05 -0.172517 0.00974196 0.172792 0.132849
0.45 0.05 -0.175614 0.00822573 0.175806 0.13313
0.46 0.05 -0.17812 0.00658648 0.178242 0.133498
0.47 0.05 -0.180005 0.00483472 0.18007 0.133952
0.48 0.05 -0.181238 0.00298287 0.181263 0.134487
0.49 0.05 -0.181797 0.00104457 0.1818 0.135099
0.5 0.05 -0.181661 -0.000964533 0.181663 0.135781
0.51 0.05 -0.180817 -0.0030265 0.180843 0.136524
0.52 0.05 -0.179259 -0.00512166 0.179332 0.137316
0.53 0.05 -0.176984 -0.00722916 0.177131 0.138146
0.54 0.05 -0.173996 -0.0093274 0.174246 0.139002
0.55 0.05 -0.170305 -0.0113946 0.170686 0.139868
0.56 0.05 -0.165929 -0.0134083 0.16647 0.140728
0.57 0.05 -0.160894 -0.0153449 0.161624 0.141564
0.58 0.05 -0.155233 -0.0171805 0.156181 0.14236
0.59 0.05 -0.148985 -0.0188921 0.150178 0.143098
0.6 0.05 -0.142194 -0.0204578 0.143659 0.143763
0.61 0.05 -0.134912 -0.0218567 0.136671 0.14434
0.62 0.05 -0.127193 -0.0230699 0.129268 0.144815
0.63 0.05 -0.119098 -0.02408 0.121508 0.145175
0.64 0.05 -0.110704 -0.0248709 0.113463 0.1454
0.65 0.05 -0.102092 -0.0254273 0.105211 0.145487
0.66 0.05 -0.093319 -0.0257411 0.0968041 0.145451
0.67 0.05 -0.0844376 -0.0258139 0.0882953 0.145282
0.68 0.05 -0.0755265 -0.0256477 0.0797625 0.144969
0.69 0.05 -0.0666731 -0.0252446 0.0712923 0.144516
0.7 0.05 -0.0579553 -0.0246108 0.0629643 0.143932
0.71 0.05 -0.0494457 -0.0237561 0.0548565 0.143226
0.72 0.05 -0.0412146 -0.0226943 0.0470498 0.142406
0.73 0.05 -0.0333288 -0.0214423 0.0396306 0.141487
0.74 0.05 -0.0258501 -0.02002 0.032696 0.140481
0.75 0.05 -0.0188347 -0.0184499 0.0263656 0.139405
0.76 0.05 -0.012332 -0.0167569 0.0208056 0.138275
0.77 0.05 -0.0063838 -0.0149671 0.0162717 0.137107
0.78 0.05 -0.00102541 -0.0131076 0.0131477 0.135916
0.79 0.05 0.00371497 -0.0112055 0.0118053 0.13472
0.8 0.05 0.0078205 -0.0092875 0.0121416 0.133533
0.81 0.05 0.0112853 -0.00737951 0.0134839 0.132371
0.82 0.05 0.0141108 -0.00550692 0.0151473 0.131245
0.83 0.05 0.0163058 -0.00369369 0.0167189 0.130165
0.84 0.05 0.0178874 -0.00196196 0.0179947 0.129143
0.85 0.05 0.0188805 -0.000332042 0.0188834 0.128185
0.86 0.05 0.0193169 0.00117762 0.0193527 0.127297
0.87 0.05 0.0192353 0.00255037 0.0194036 0.126485
0.88 0.05 0.0186813 0.00377084 0.019058 0.125752
0.89 0.05 0.0177064 0.0048239 0.0183517 0.1251
0.9 0.05 0.0163679 0.00569357 0.0173299 0.12453
0.91 0.05 0.0147293 0.00636229 0.0160446 0.124043
0.92 0.05 0.01286 0.0068104 0.014552 0.12364
0.93 0.05 0.0108347 0.00701556 0.0129077 0.12332
0.94 0.05 0.00873419 0.00695253 0.0111635 0.123083
0.95 0.05 0.00664994 0.00659425 0.00936513 0.122931
0.96 0.05 0.00468237 0.00591572 0.00754456 0.122862
0.97 0.05 0.00292399 0.00489988 0.00570601 0.122866
0.98 0.05 0.00148309 0.00354519 0.00384291 0.122959
0.99 0.05 0.000518135 0.0018835 0.00195347 0.123155
1 0.05 0 0 0 0.123277
0 0.06 0 0 0 0.149239
0.01 0.06 -0.000167012 -0.00135744 0.00136767 0.149245
0.02 0.06 -0.000335388 -0.0019904 0.00201846 0.14923